
  ___ ___ ___ _ _ _  
 |   |   |_  | | | | 
 | | | | | . | | | | 
 |__ |  _|___|_____|  1.4.0
 |___|_|             

User:   rasmus@AsusN550
Date:   Thu Sep 13 13:05:18 2018
Arch:   x86_64
Pid:    12605
Python: 3.6.3
gpaw:   /home/rasmus/anaconda3/lib/python3.6/site-packages/gpaw
_gpaw:  /home/rasmus/anaconda3/lib/python3.6/site-packages/
        _gpaw.cpython-36m-x86_64-linux-gnu.so
ase:    /home/rasmus/.local/lib/python3.6/site-packages/ase (version 3.16.2)
numpy:  /home/rasmus/.local/lib/python3.6/site-packages/numpy (version 1.15.1)
scipy:  /home/rasmus/.local/lib/python3.6/site-packages/scipy (version 1.1.0)
units:  Angstrom and eV
cores:  1

Input parameters:
  kpts: [8 8 8]
  mode: {ecut: 600.0,
         name: pw}
  nbands: -2
  occupations: {name: fermi-dirac,
                width: 0.1}
  xc: PBE

System changes: positions, numbers, cell, pbc, initial_charges, initial_magmoms 

Initialize ...

Cu-setup:
  name: Copper
  id: f1c4d45d90492f1bbfdcb091e8418fdf
  Z: 29
  valence: 11
  core: 18
  charge: 0.0
  file: /usr/share/gpaw-setups/Cu.PBE.gz
  cutoffs: 1.06(comp), 2.06(filt), 2.43(core), lmax=2
  valence states:
                energy  radius
    4s(1.00)    -4.609   1.164
    4p(0.00)    -0.698   1.164
    3d(10.00)    -5.039   1.058
    *s          22.603   1.164
    *p          26.513   1.164
    *d          22.172   1.058

  Using partial waves for Cu as LCAO basis

Reference energy: -90042.903682

Spin-paired calculation

Occupation numbers:
  Fermi-Dirac: width=0.1000 eV

Convergence criteria:
  Maximum total energy change: 0.0005 eV / electron
  Maximum integral of absolute density change: 0.0001 electrons
  Maximum integral of absolute eigenstate change: 4e-08 eV^2
  Maximum number of iterations: 333

Symmetries present (total): 4

  ( 1  0  0)  ( 0  0  1)  ( 0  0 -1)  (-1  0  0)
  ( 0  1  0)  ( 0  1  0)  ( 0 -1  0)  ( 0 -1  0)
  ( 0  0  1)  ( 1  0  0)  (-1  0  0)  ( 0  0 -1)

512 k-points: 8 x 8 x 8 Monkhorst-Pack grid
144 k-points in the irreducible part of the Brillouin zone
       k-points in crystal coordinates                weights
   0:     0.06250000   -0.43750000    0.06250000          2/512
   1:     0.06250000   -0.31250000    0.06250000          2/512
   2:     0.06250000   -0.18750000    0.06250000          2/512
   3:     0.06250000   -0.06250000    0.06250000          2/512
   4:     0.06250000    0.06250000   -0.06250000          4/512
   5:     0.06250000    0.06250000    0.06250000          2/512
   6:     0.06250000    0.18750000   -0.06250000          4/512
   7:     0.06250000    0.18750000    0.06250000          2/512
   8:     0.06250000    0.31250000   -0.06250000          4/512
   9:     0.06250000    0.31250000    0.06250000          2/512
          ...
 143:     0.43750000    0.43750000    0.43750000          2/512

Wave functions: Plane wave expansion
  Cutoff energy: 600.000 eV
  Number of coefficients (min, max): 775, 801
  Pulay-stress correction: 0.000000 eV/Ang^3 (de/decut=0.000000)
  Using FFTW library
  ScaLapack parameters: grid=1x1, blocksize=None 

Eigensolver
   Davidson(niter=1, smin=None, normalize=True) 

Densities:
  Coarse grid: 12*24*12 grid
  Fine grid: 24*48*24 grid
  Total Charge: 0.000000 

Density mixing:
  Method: separate
  Backend: pulay
  Linear mixing parameter: 0.05
  Mixing with 5 old densities
  Damping of long wave oscillations: 50 

Hamiltonian:
  XC and Coulomb potentials evaluated on a 24*48*24 grid
  Using the PBE Exchange-Correlation functional
 

Memory estimate:
  Process memory now: 129.54 MiB
  Calculator: 40.51 MiB
    Density: 1.42 MiB
      Arrays: 0.69 MiB
      Localized functions: 0.47 MiB
      Mixer: 0.26 MiB
    Hamiltonian: 0.46 MiB
      Arrays: 0.45 MiB
      XC: 0.00 MiB
      Poisson: 0.00 MiB
      vbar: 0.01 MiB
    Wavefunctions: 38.63 MiB
      Arrays psit_nG: 22.88 MiB
      Eigensolver: 0.25 MiB
      Projections: 1.03 MiB
      Projectors: 13.04 MiB
      PW-descriptor: 1.44 MiB

Total number of cores used: 1

Number of atoms: 2
Number of atomic orbitals: 18
Number of bands in calculation: 13
Bands to converge: occupied states only
Number of valence electrons: 22

... initialized

Initializing position-dependent things.

Density initialized from atomic densities
Creating initial wave functions:
  13 bands from LCAO basis set

                  
                  
                  
                  
         Cu       
                  
                  
       Cu         
                  
                  
                  
                  

Positions:
   0 Cu     0.000000    0.000000    0.000000    ( 0.0000,  0.0000,  0.0000)
   1 Cu     0.000000    1.810000    1.810000    ( 0.0000,  0.0000,  0.0000)

Unit cell:
           periodic     x           y           z      points  spacing
  1. axis:    yes    1.810000    1.810000    0.000000    12     0.1742
  2. axis:    yes    0.000000    3.620000    3.620000    24     0.1742
  3. axis:    yes    1.810000    0.000000    1.810000    12     0.1742

  Lengths:   2.559727   5.119453   2.559727
  Angles:   60.000000  60.000000  60.000000

Effective grid spacing dv^(1/3) = 0.1900

                     log10-error:    total        iterations:
           time      wfs    density  energy       fermi  poisson
iter:   1  13:05:29  +1.05   +inf    -9.062245    3             
iter:   2  13:05:33  +0.27   +inf    -9.190237    2             
iter:   3  13:05:37  -0.65   +inf    -9.221873    2             
iter:   4  13:05:41  +0.04  -1.18    -8.485264    30            
iter:   5  13:05:44  +0.90  -1.27    -7.319501    29            
iter:   6  13:05:48  -0.57  -1.74    -7.423605    4             
iter:   7  13:05:52  +0.16  -1.87    -7.321840    4             
iter:   8  13:05:57  -1.49  -2.48    -7.322183    3             
iter:   9  13:06:01  -2.69  -2.70    -7.323683    3             
iter:  10  13:06:05  -2.24  -2.54    -7.322093    3             
iter:  11  13:06:09  -2.12  -2.61    -7.320709    3             
iter:  12  13:06:13  -3.18  -3.69    -7.320746    2             
iter:  13  13:06:17  -3.58  -3.69    -7.320749    2             
iter:  14  13:06:21  -2.81  -3.18    -7.320867    3             
Timing:                              incl.     excl.
-----------------------------------------------------------
Hamiltonian:                         0.206     0.000   0.0% |
 Atomic:                             0.183     0.001   0.0% |
  XC Correction:                     0.183     0.183   0.3% |
 Calculate atomic Hamiltonians:      0.003     0.003   0.0% |
 Communicate:                        0.000     0.000   0.0% |
 Initialize Hamiltonian:             0.000     0.000   0.0% |
 Poisson:                            0.000     0.000   0.0% |
 XC 3D grid:                         0.020     0.020   0.0% |
LCAO initialization:                 2.818     0.085   0.1% |
 LCAO eigensolver:                   0.568     0.004   0.0% |
  Calculate projections:             0.005     0.005   0.0% |
  DenseAtomicCorrection:             0.015     0.015   0.0% |
  Distribute overlap matrix:         0.002     0.002   0.0% |
  Orbital Layouts:                   0.023     0.023   0.0% |
  Potential matrix:                  0.270     0.270   0.4% |
  Sum over cells:                    0.249     0.249   0.4% |
 LCAO to grid:                       1.327     1.327   2.1% ||
 Set positions (LCAO WFS):           0.838     0.002   0.0% |
  Basic WFS set positions:           0.000     0.000   0.0% |
  Basis functions set positions:     0.000     0.000   0.0% |
  TCI: Calculate S, T, P:            0.836     0.836   1.3% ||
PWDescriptor:                        0.016     0.016   0.0% |
SCF-cycle:                          58.833     0.722   1.2% |
 Davidson:                          50.980    19.939  31.8% |------------|
  Subspace diag:                    13.851     0.193   0.3% |
   calc_h_matrix:                    9.124     9.124  14.6% |-----|
   diagonalize:                      2.684     2.684   4.3% |-|
   rotate_psi:                       1.849     1.849   3.0% ||
  calc. matrices:                   11.150    11.150  17.8% |------|
  diagonalize:                       4.241     4.241   6.8% |--|
  rotate_psi:                        1.799     1.799   2.9% ||
 Density:                            2.455     0.000   0.0% |
  Atomic density matrices:           0.057     0.057   0.1% |
  Mix:                               0.055     0.055   0.1% |
  Multipole moments:                 0.001     0.001   0.0% |
  Pseudo density:                    2.342     2.332   3.7% ||
   Symmetrize density:               0.010     0.010   0.0% |
 Hamiltonian:                        2.786     0.004   0.0% |
  Atomic:                            2.445     0.094   0.2% |
   XC Correction:                    2.351     2.351   3.8% |-|
  Calculate atomic Hamiltonians:     0.040     0.040   0.1% |
  Communicate:                       0.000     0.000   0.0% |
  Poisson:                           0.002     0.002   0.0% |
  XC 3D grid:                        0.294     0.294   0.5% |
 Orthonormalize:                     1.890     0.015   0.0% |
  calc_s_matrix:                     0.063     0.063   0.1% |
  inverse-cholesky:                  1.488     1.488   2.4% ||
  projections:                       0.260     0.260   0.4% |
  rotate_psi_s:                      0.064     0.064   0.1% |
Set symmetry:                        0.015     0.015   0.0% |
Other:                               0.736     0.736   1.2% |
-----------------------------------------------------------
Total:                                        62.624 100.0%

Memory usage: 147.82 MiB
Date: Thu Sep 13 13:06:21 2018
:                       2.371     2.371   2.2% ||
  calc. matrices:                   17.303    17.303  16.4% |------|
  diagonalize:                      11.873    11.873  11.3% |----|
  rotate_psi:                        2.295     2.295   2.2% ||
 Density:                            4.378     0.000   0.0% |
  Atomic density matrices:           0.135     0.135   0.1% |
  Mix:                               0.090     0.090   0.1% |
  Multipole moments:                 0.003     0.003   0.0% |
  Pseudo density:                    4.150     4.136   3.9% |-|
   Symmetrize density:               0.013     0.013   0.0% |
 Hamiltonian:                        6.271     0.012   0.0% |
  Atomic:                            5.825     0.293   0.3% |
   XC Correction:                    5.532     5.532   5.2% |-|
  Calculate atomic Hamiltonians:     0.054     0.054   0.1% |
  Communicate:                       0.000     0.000   0.0% |
  Poisson:                           0.003     0.003   0.0% |
  XC 3D grid:                        0.377     0.377   0.4% |
 Orthonormalize:                     3.163     0.015   0.0% |
  calc_s_matrix:                     0.045     0.045   0.0% |
  inverse-cholesky:                  2.883     2.883   2.7% ||
  projections:                       0.177     0.177   0.2% |
  rotate_psi_s:                      0.044     0.044   0.0% |
Set symmetry:                        0.015     0.015   0.0% |
Other:                               0.735     0.735   0.7% |
-----------------------------------------------------------
Total:                                       105.453 100.0%

Memory usage: 129.54 MiB
Date: Thu Sep 13 13:05:18 2018
