
  ___ ___ ___ _ _ _  
 |   |   |_  | | | | 
 | | | | | . | | | | 
 |__ |  _|___|_____|  1.4.0
 |___|_|             

User:   rasmus@AsusN550
Date:   Thu Oct  4 08:50:48 2018
Arch:   x86_64
Pid:    15684
Python: 3.6.3
gpaw:   /home/rasmus/anaconda3/lib/python3.6/site-packages/gpaw
_gpaw:  /home/rasmus/anaconda3/lib/python3.6/site-packages/
        _gpaw.cpython-36m-x86_64-linux-gnu.so
ase:    /home/rasmus/.local/lib/python3.6/site-packages/ase (version 3.16.2)
numpy:  /home/rasmus/.local/lib/python3.6/site-packages/numpy (version 1.15.1)
scipy:  /home/rasmus/.local/lib/python3.6/site-packages/scipy (version 1.1.0)
units:  Angstrom and eV
cores:  1

Input parameters:
  kpts: [8 8 8]
  mode: {ecut: 340.0,
         name: pw}
  nbands: -2
  occupations: {name: fermi-dirac,
                width: 0.1}
  xc: PBE

System changes: positions, numbers, cell, pbc, initial_charges, initial_magmoms 

Initialize ...

Cu-setup:
  name: Copper
  id: f1c4d45d90492f1bbfdcb091e8418fdf
  Z: 29
  valence: 11
  core: 18
  charge: 0.0
  file: /usr/share/gpaw-setups/Cu.PBE.gz
  cutoffs: 1.06(comp), 2.06(filt), 2.43(core), lmax=2
  valence states:
                energy  radius
    4s(1.00)    -4.609   1.164
    4p(0.00)    -0.698   1.164
    3d(10.00)    -5.039   1.058
    *s          22.603   1.164
    *p          26.513   1.164
    *d          22.172   1.058

  Using partial waves for Cu as LCAO basis

Reference energy: -45021.451841

Spin-paired calculation

Occupation numbers:
  Fermi-Dirac: width=0.1000 eV

Convergence criteria:
  Maximum total energy change: 0.0005 eV / electron
  Maximum integral of absolute density change: 0.0001 electrons
  Maximum integral of absolute eigenstate change: 4e-08 eV^2
  Maximum number of iterations: 333

Symmetries present (total): 48

  ( 1  0  0)  ( 1  0  0)  ( 1  0  0)  ( 1  0  0)  ( 1  0 -1)  ( 1  0 -1)
  ( 1  0 -1)  ( 1 -1  0)  ( 0  1  0)  ( 0  0  1)  ( 1  0  0)  ( 1 -1  0)
  ( 1 -1  0)  ( 1  0 -1)  ( 0  0  1)  ( 0  1  0)  ( 1 -1  0)  ( 1  0  0)

  ( 1  0 -1)  ( 1  0 -1)  ( 1 -1  0)  ( 1 -1  0)  ( 1 -1  0)  ( 1 -1  0)
  ( 0  1 -1)  ( 0  0 -1)  ( 1  0  0)  ( 1  0 -1)  ( 0 -1  1)  ( 0 -1  0)
  ( 0  0 -1)  ( 0  1 -1)  ( 1  0 -1)  ( 1  0  0)  ( 0 -1  0)  ( 0 -1  1)

  ( 0  1  0)  ( 0  1  0)  ( 0  1  0)  ( 0  1  0)  ( 0  1 -1)  ( 0  1 -1)
  ( 1  0  0)  ( 0  1 -1)  ( 0  0  1)  (-1  1  0)  ( 1  0 -1)  ( 0  1  0)
  ( 0  0  1)  (-1  1  0)  ( 1  0  0)  ( 0  1 -1)  ( 0  0 -1)  (-1  1  0)

  ( 0  1 -1)  ( 0  1 -1)  ( 0  0  1)  ( 0  0  1)  ( 0  0  1)  ( 0  0  1)
  ( 0  0 -1)  (-1  1  0)  ( 1  0  0)  ( 0  1  0)  ( 0 -1  1)  (-1  0  1)
  ( 1  0 -1)  ( 0  1  0)  ( 0  1  0)  ( 1  0  0)  (-1  0  1)  ( 0 -1  1)

  ( 0  0 -1)  ( 0  0 -1)  ( 0  0 -1)  ( 0  0 -1)  ( 0 -1  1)  ( 0 -1  1)
  ( 1  0 -1)  ( 0  1 -1)  ( 0 -1  0)  (-1  0  0)  ( 1 -1  0)  ( 0  0  1)
  ( 0  1 -1)  ( 1  0 -1)  (-1  0  0)  ( 0 -1  0)  ( 0 -1  0)  (-1  0  1)

  ( 0 -1  1)  ( 0 -1  1)  ( 0 -1  0)  ( 0 -1  0)  ( 0 -1  0)  ( 0 -1  0)
  ( 0 -1  0)  (-1  0  1)  ( 1 -1  0)  ( 0  0 -1)  ( 0 -1  1)  (-1  0  0)
  ( 1 -1  0)  ( 0  0  1)  ( 0 -1  1)  (-1  0  0)  ( 1 -1  0)  ( 0  0 -1)

  (-1  1  0)  (-1  1  0)  (-1  1  0)  (-1  1  0)  (-1  0  1)  (-1  0  1)
  ( 0  1  0)  ( 0  1 -1)  (-1  0  1)  (-1  0  0)  ( 0  0  1)  ( 0 -1  1)
  ( 0  1 -1)  ( 0  1  0)  (-1  0  0)  (-1  0  1)  ( 0 -1  1)  ( 0  0  1)

  (-1  0  1)  (-1  0  1)  (-1  0  0)  (-1  0  0)  (-1  0  0)  (-1  0  0)
  (-1  1  0)  (-1  0  0)  ( 0  0 -1)  ( 0 -1  0)  (-1  1  0)  (-1  0  1)
  (-1  0  0)  (-1  1  0)  ( 0 -1  0)  ( 0  0 -1)  (-1  0  1)  (-1  1  0)
Note: your k-points are not as symmetric as your crystal!

512 k-points: 8 x 8 x 8 Monkhorst-Pack grid
60 k-points in the irreducible part of the Brillouin zone
       k-points in crystal coordinates                weights
   0:     0.06250000    0.06250000   -0.06250000          6/512
   1:     0.06250000    0.06250000    0.06250000          2/512
   2:     0.18750000   -0.06250000   -0.06250000          6/512
   3:     0.18750000    0.06250000   -0.18750000         12/512
   4:     0.18750000    0.06250000   -0.06250000         12/512
   5:     0.18750000    0.06250000    0.06250000          6/512
   6:     0.18750000    0.18750000   -0.18750000          6/512
   7:     0.18750000    0.18750000   -0.06250000          6/512
   8:     0.18750000    0.18750000    0.06250000          6/512
   9:     0.18750000    0.18750000    0.18750000          2/512
          ...
  59:     0.43750000    0.43750000    0.43750000          2/512

Wave functions: Plane wave expansion
  Cutoff energy: 340.000 eV
  Number of coefficients (min, max): 162, 174
  Pulay-stress correction: 0.000000 eV/Ang^3 (de/decut=0.000000)
  Using FFTW library
  ScaLapack parameters: grid=1x1, blocksize=None 

Eigensolver
   Davidson(niter=1, smin=None, normalize=True) 

Densities:
  Coarse grid: 9*9*9 grid
  Fine grid: 18*18*18 grid
  Total Charge: 0.000000 

Density mixing:
  Method: separate
  Backend: pulay
  Linear mixing parameter: 0.05
  Mixing with 5 old densities
  Damping of long wave oscillations: 50 

Hamiltonian:
  XC and Coulomb potentials evaluated on a 18*18*18 grid
  Using the PBE Exchange-Correlation functional
 

Memory estimate:
  Process memory now: 69.02 MiB
  Calculator: 2.97 MiB
    Density: 0.30 MiB
      Arrays: 0.14 MiB
      Localized functions: 0.10 MiB
      Mixer: 0.06 MiB
    Hamiltonian: 0.10 MiB
      Arrays: 0.09 MiB
      XC: 0.00 MiB
      Poisson: 0.00 MiB
      vbar: 0.00 MiB
    Wavefunctions: 2.57 MiB
      Arrays psit_nG: 1.12 MiB
      Eigensolver: 0.04 MiB
      Projections: 0.12 MiB
      Projectors: 1.16 MiB
      PW-descriptor: 0.14 MiB

Total number of cores used: 1

Number of atoms: 1
Number of atomic orbitals: 9
Number of bands in calculation: 7
Bands to converge: occupied states only
Number of valence electrons: 11

... initialized

Initializing position-dependent things.

Density initialized from atomic densities
Creating initial wave functions:
  7 bands from LCAO basis set

                
                
                
       Cu       
                
                
                
                

Positions:
   0 Cu     0.000000    0.000000    0.000000    ( 0.0000,  0.0000,  0.0000)

Unit cell:
           periodic     x           y           z      points  spacing
  1. axis:    yes    0.000000    1.810000    1.810000     9     0.2322
  2. axis:    yes    1.810000    0.000000    1.810000     9     0.2322
  3. axis:    yes    1.810000    1.810000    0.000000     9     0.2322

  Lengths:   2.559727   2.559727   2.559727
  Angles:   60.000000  60.000000  60.000000

Effective grid spacing dv^(1/3) = 0.2534

                     log10-error:    total        iterations:
           time      wfs    density  energy       fermi  poisson
iter:   1  08:50:50  +1.35   +inf    -4.267708    3             
iter:   2  08:50:51  +0.19   +inf    -4.330178    2             
iter:   3  08:50:51  -0.78   +inf    -4.343368    2             
iter:   4  08:50:52  -0.09  -1.17    -3.976714    30            
iter:   5  08:50:52  +0.80  -1.25    -3.408010    30            
iter:   6  08:50:53  -0.53  -1.74    -3.465761    29            
iter:   7  08:50:54  +0.06  -1.83    -3.400803    4             
iter:   8  08:50:54  -2.03  -2.86    -3.401649    3             
iter:   9  08:50:55  -2.53  -2.78    -3.401498    3             
iter:  10  08:50:56  -1.90  -2.92    -3.401300    3             
iter:  11  08:50:57  -2.97  -3.08    -3.401173    3             
iter:  12  08:50:57  -4.10  -3.35    -3.401180    2             
iter:  13  08:50:58  -3.65  -3.31    -3.401138    2             
iter:  14  08:50:59  -4.75  -3.38    -3.401145    2             
iter:  15  08:51:00  -5.02  -3.34    -3.401155    2             
iter:  16  08:51:01  -5.21  -3.31    -3.401147    2             
iter:  17  08:51:01  -3.12  -3.34    -3.401330    3             
iter:  18  08:51:02  -4.80  -3.12    -3.401325    2             
iter:  19  08:51:03  -2.60  -3.03    -3.401123    3             
iter:  20  08:51:03  -3.59  -3.48    -3.401160    3             
iter:  21  08:51:04  -3.30  -3.41    -3.401121    3             
iter:  22  08:51:05  -5.29  -3.72    -3.401127    2             
iter:  23  08:51:05  -5.13  -3.75    -3.401122    2             
iter:  24  08:51:06  -6.56  -3.78    -3.401120    2             
iter:  25  08:51:06  -4.48  -3.80    -3.401116    2             
iter:  26  08:51:07  -5.72  -4.24    -3.401116    2             
iter:  27  08:51:08  -6.50  -4.78    -3.401116    2             
iter:  28  08:51:08  -7.19  -4.77    -3.401116    2             
iter:  29  08:51:09  -6.49  -4.74    -3.401116    2             
iter:  30  08:51:10  -7.07  -4.92    -3.401116    2             
iter:  31  08:51:11  -6.99  -4.84    -3.401116    2             
iter:  32  08:51:12  -7.03  -4.89    -3.401116    2             
iter:  33  08:51:12  -7.43  -4.94    -3.401116    2             

Converged after 33 iterations.

Dipole moment: (0.000000, 0.000000, -0.000000) |e|*Ang

Energy contributions relative to reference atoms: (reference = -45021.451841)

Kinetic:        -12.691266
Potential:       +9.734881
External:        +0.000000
XC:              -0.832136
Entropy (-ST):   -0.009411
Local:           +0.392110
--------------------------
Free energy:     -3.405821
Extrapolated:    -3.401116

Fermi level: 7.96682

Warning: Showing only first 2 kpts
 Kpt  Band  Eigenvalues  Occupancy
  0     3      5.12039    0.02344
  0     4      5.72454    0.02344
  0     5      5.86313    0.02344
  0     6     27.97737    0.00000

  1     3      5.04032    0.00781
  1     4      5.81701    0.00781
  1     5      5.81701    0.00781
  1     6     29.88764    0.00000


Writing to Cu.gpw (mode='')

Timing:                              incl.     excl.
-----------------------------------------------------------
Hamiltonian:                         0.206     0.000   0.0% |
 Atomic:                             0.198     0.013   0.1% |
  XC Correction:                     0.186     0.186   0.8% |
 Calculate atomic Hamiltonians:      0.000     0.000   0.0% |
 Communicate:                        0.000     0.000   0.0% |
 Initialize Hamiltonian:             0.000     0.000   0.0% |
 Poisson:                            0.000     0.000   0.0% |
 XC 3D grid:                         0.007     0.007   0.0% |
LCAO initialization:                 0.574     0.076   0.3% |
 LCAO eigensolver:                   0.204     0.001   0.0% |
  Calculate projections:             0.001     0.001   0.0% |
  DenseAtomicCorrection:             0.003     0.003   0.0% |
  Distribute overlap matrix:         0.001     0.001   0.0% |
  Orbital Layouts:                   0.003     0.003   0.0% |
  Potential matrix:                  0.055     0.055   0.2% |
  Sum over cells:                    0.140     0.140   0.6% |
 LCAO to grid:                       0.078     0.078   0.3% |
 Set positions (LCAO WFS):           0.216     0.001   0.0% |
  Basic WFS set positions:           0.002     0.002   0.0% |
  Basis functions set positions:     0.000     0.000   0.0% |
  TCI: Calculate S, T, P:            0.214     0.214   0.9% |
PWDescriptor:                        0.004     0.004   0.0% |
SCF-cycle:                          22.602     0.607   2.5% ||
 Davidson:                          16.156     5.577  23.0% |--------|
  Subspace diag:                     4.501     0.159   0.7% |
   calc_h_matrix:                    2.977     2.977  12.3% |----|
   diagonalize:                      1.131     1.131   4.7% |-|
   rotate_psi:                       0.234     0.234   1.0% |
  calc. matrices:                    3.063     3.063  12.6% |----|
  diagonalize:                       2.832     2.832  11.7% |----|
  rotate_psi:                        0.182     0.182   0.8% |
 Density:                            1.484     0.001   0.0% |
  Atomic density matrices:           0.072     0.072   0.3% |
  Mix:                               0.406     0.406   1.7% ||
  Multipole moments:                 0.003     0.003   0.0% |
  Pseudo density:                    1.002     0.901   3.7% ||
   Symmetrize density:               0.101     0.101   0.4% |
 Hamiltonian:                        4.303     0.008   0.0% |
  Atomic:                            3.981     0.287   1.2% |
   XC Correction:                    3.694     3.694  15.2% |-----|
  Calculate atomic Hamiltonians:     0.016     0.016   0.1% |
  Communicate:                       0.000     0.000   0.0% |
  Poisson:                           0.003     0.003   0.0% |
  XC 3D grid:                        0.296     0.296   1.2% |
 Orthonormalize:                     0.051     0.005   0.0% |
  calc_s_matrix:                     0.008     0.008   0.0% |
  inverse-cholesky:                  0.022     0.022   0.1% |
  projections:                       0.012     0.012   0.0% |
  rotate_psi_s:                      0.004     0.004   0.0% |
Set symmetry:                        0.052     0.052   0.2% |
Other:                               0.816     0.816   3.4% ||
-----------------------------------------------------------
Total:                                        24.253 100.0%

Date: Thu Oct  4 08:51:12 2018
