
  ___ ___ ___ _ _ _  
 |   |   |_  | | | | 
 | | | | | . | | | | 
 |__ |  _|___|_____|  1.4.0
 |___|_|             

User:   rasmus@AsusN550
Date:   Thu Nov  1 09:38:12 2018
Arch:   x86_64
Pid:    4341
Python: 3.6.3
gpaw:   /home/rasmus/anaconda3/lib/python3.6/site-packages/gpaw
_gpaw:  /home/rasmus/anaconda3/lib/python3.6/site-packages/
        _gpaw.cpython-36m-x86_64-linux-gnu.so
ase:    /home/rasmus/.local/lib/python3.6/site-packages/ase (version 3.16.2)
numpy:  /home/rasmus/.local/lib/python3.6/site-packages/numpy (version 1.15.1)
scipy:  /home/rasmus/.local/lib/python3.6/site-packages/scipy (version 1.1.0)
units:  Angstrom and eV
cores:  1

Input parameters:
  kpts: [3 3 3]
  mode: {ecut: 600.0,
         name: pw}
  nbands: -8
  occupations: {name: fermi-dirac,
                width: 0.1}
  xc: PBE

System changes: positions, numbers, cell, pbc, initial_charges, initial_magmoms 

Initialize ...

Cu-setup:
  name: Copper
  id: f1c4d45d90492f1bbfdcb091e8418fdf
  Z: 29
  valence: 11
  core: 18
  charge: 0.0
  file: /usr/share/gpaw-setups/Cu.PBE.gz
  cutoffs: 1.06(comp), 2.06(filt), 2.43(core), lmax=2
  valence states:
                energy  radius
    4s(1.00)    -4.609   1.164
    4p(0.00)    -0.698   1.164
    3d(10.00)    -5.039   1.058
    *s          22.603   1.164
    *p          26.513   1.164
    *d          22.172   1.058

  Using partial waves for Cu as LCAO basis

Reference energy: -2836351.465990

Spin-paired calculation

Occupation numbers:
  Fermi-Dirac: width=0.1000 eV

Convergence criteria:
  Maximum total energy change: 0.0005 eV / electron
  Maximum integral of absolute density change: 0.0001 electrons
  Maximum integral of absolute eigenstate change: 4e-08 eV^2
  Maximum number of iterations: 333

Symmetries present (total): 48

  ( 1  0  0)  ( 1  0  0)  ( 1  0  0)  ( 1  0  0)  ( 1  0 -1)  ( 1  0 -1)
  ( 1  0 -1)  ( 1 -1  0)  ( 0  1  0)  ( 0  0  1)  ( 1  0  0)  ( 1 -1  0)
  ( 1 -1  0)  ( 1  0 -1)  ( 0  0  1)  ( 0  1  0)  ( 1 -1  0)  ( 1  0  0)

  ( 1  0 -1)  ( 1  0 -1)  ( 1 -1  0)  ( 1 -1  0)  ( 1 -1  0)  ( 1 -1  0)
  ( 0  1 -1)  ( 0  0 -1)  ( 1  0  0)  ( 1  0 -1)  ( 0 -1  1)  ( 0 -1  0)
  ( 0  0 -1)  ( 0  1 -1)  ( 1  0 -1)  ( 1  0  0)  ( 0 -1  0)  ( 0 -1  1)

  ( 0  1  0)  ( 0  1  0)  ( 0  1  0)  ( 0  1  0)  ( 0  1 -1)  ( 0  1 -1)
  ( 1  0  0)  ( 0  1 -1)  ( 0  0  1)  (-1  1  0)  ( 1  0 -1)  ( 0  1  0)
  ( 0  0  1)  (-1  1  0)  ( 1  0  0)  ( 0  1 -1)  ( 0  0 -1)  (-1  1  0)

  ( 0  1 -1)  ( 0  1 -1)  ( 0  0  1)  ( 0  0  1)  ( 0  0  1)  ( 0  0  1)
  ( 0  0 -1)  (-1  1  0)  ( 1  0  0)  ( 0  1  0)  ( 0 -1  1)  (-1  0  1)
  ( 1  0 -1)  ( 0  1  0)  ( 0  1  0)  ( 1  0  0)  (-1  0  1)  ( 0 -1  1)

  ( 0  0 -1)  ( 0  0 -1)  ( 0  0 -1)  ( 0  0 -1)  ( 0 -1  1)  ( 0 -1  1)
  ( 1  0 -1)  ( 0  1 -1)  ( 0 -1  0)  (-1  0  0)  ( 1 -1  0)  ( 0  0  1)
  ( 0  1 -1)  ( 1  0 -1)  (-1  0  0)  ( 0 -1  0)  ( 0 -1  0)  (-1  0  1)

  ( 0 -1  1)  ( 0 -1  1)  ( 0 -1  0)  ( 0 -1  0)  ( 0 -1  0)  ( 0 -1  0)
  ( 0 -1  0)  (-1  0  1)  ( 1 -1  0)  ( 0  0 -1)  ( 0 -1  1)  (-1  0  0)
  ( 1 -1  0)  ( 0  0  1)  ( 0 -1  1)  (-1  0  0)  ( 1 -1  0)  ( 0  0 -1)

  (-1  1  0)  (-1  1  0)  (-1  1  0)  (-1  1  0)  (-1  0  1)  (-1  0  1)
  ( 0  1  0)  ( 0  1 -1)  (-1  0  1)  (-1  0  0)  ( 0  0  1)  ( 0 -1  1)
  ( 0  1 -1)  ( 0  1  0)  (-1  0  0)  (-1  0  1)  ( 0 -1  1)  ( 0  0  1)

  (-1  0  1)  (-1  0  1)  (-1  0  0)  (-1  0  0)  (-1  0  0)  (-1  0  0)
  (-1  1  0)  (-1  0  0)  ( 0  0 -1)  ( 0 -1  0)  (-1  1  0)  (-1  0  1)
  (-1  0  0)  (-1  1  0)  ( 0 -1  0)  ( 0  0 -1)  (-1  0  1)  (-1  1  0)

27 k-points: 3 x 3 x 3 Monkhorst-Pack grid
4 k-points in the irreducible part of the Brillouin zone
       k-points in crystal coordinates                weights
   0:     0.00000000    0.00000000    0.00000000          1/27
   1:     0.33333333    0.33333333   -0.33333333         12/27
   2:     0.33333333    0.33333333    0.00000000          6/27
   3:     0.33333333    0.33333333    0.33333333          8/27

Wave functions: Plane wave expansion
  Cutoff energy: 600.000 eV
  Number of coefficients (min, max): 25241, 25509
  Pulay-stress correction: 0.000000 eV/Ang^3 (de/decut=0.000000)
  Using FFTW library
  ScaLapack parameters: grid=1x1, blocksize=None 

Eigensolver
   Davidson(niter=1, smin=None, normalize=True) 

Densities:
  Coarse grid: 48*48*48 grid
  Fine grid: 96*96*96 grid
  Total Charge: 0.000000 

Density mixing:
  Method: separate
  Backend: pulay
  Linear mixing parameter: 0.05
  Mixing with 5 old densities
  Damping of long wave oscillations: 50 

Hamiltonian:
  XC and Coulomb potentials evaluated on a 96*96*96 grid
  Using the PBE Exchange-Correlation functional
 

Memory estimate:
  Process memory now: 118.71 MiB
  Calculator: 811.82 MiB
    Density: 45.64 MiB
      Arrays: 21.94 MiB
      Localized functions: 15.27 MiB
      Mixer: 8.44 MiB
    Hamiltonian: 14.66 MiB
      Arrays: 14.34 MiB
      XC: 0.00 MiB
      Poisson: 0.00 MiB
      vbar: 0.31 MiB
    Wavefunctions: 751.52 MiB
      Arrays psit_nG: 551.16 MiB
      Eigensolver: 158.87 MiB
      Projections: 24.50 MiB
      Projectors: 11.61 MiB
      PW-descriptor: 5.38 MiB

Total number of cores used: 1

Number of atoms: 63
Number of atomic orbitals: 567
Number of bands in calculation: 354
Bands to converge: occupied states only
Number of valence electrons: 693

... initialized

Initializing position-dependent things.

Density initialized from atomic densities
Creating initial wave functions:
  354 bands from LCAO basis set

                                                  
                                                  
                                                  
                                                  
                                         Cu       
                                   Cu             
                              Cu    Cu            
                        Cu     Cu       Cu        
                         Cu     CuCu              
                   Cu     Cu Cu    Cu             
                     CuCu  Cu Cu       Cu         
               Cu     CuCu     CuCu               
                CuCu     CuCu     Cu              
          Cu       Cu Cu  Cu Cu       Cu          
                                                  
              Cu     CuCu     CuCu                
               CuCu     CuCu     Cu               
         Cu       Cu Cu  CuCu                     
             Cu    Cu Cu     Cu                   
              CuCu     Cu                         
        Cu       Cu     Cu                        
            Cu    Cu                              
             Cu                                   
                                                  
                                                  
                                                  
                                                  
                                                  

Positions:
   0 Cu     1.810000    1.810000    0.000000    ( 0.0000,  0.0000,  0.0000)
   1 Cu     3.620000    3.620000    0.000000    ( 0.0000,  0.0000,  0.0000)
   2 Cu     5.430000    5.430000    0.000000    ( 0.0000,  0.0000,  0.0000)
   3 Cu     1.810000    0.000000    1.810000    ( 0.0000,  0.0000,  0.0000)
   4 Cu     3.620000    1.810000    1.810000    ( 0.0000,  0.0000,  0.0000)
   5 Cu     5.430000    3.620000    1.810000    ( 0.0000,  0.0000,  0.0000)
   6 Cu     7.240000    5.430000    1.810000    ( 0.0000,  0.0000,  0.0000)
   7 Cu     3.620000    0.000000    3.620000    ( 0.0000,  0.0000,  0.0000)
   8 Cu     5.430000    1.810000    3.620000    ( 0.0000,  0.0000,  0.0000)
   9 Cu     7.240000    3.620000    3.620000    ( 0.0000,  0.0000,  0.0000)
  10 Cu     9.050000    5.430000    3.620000    ( 0.0000,  0.0000,  0.0000)
  11 Cu     5.430000    0.000000    5.430000    ( 0.0000,  0.0000,  0.0000)
  12 Cu     7.240000    1.810000    5.430000    ( 0.0000,  0.0000,  0.0000)
  13 Cu     9.050000    3.620000    5.430000    ( 0.0000,  0.0000,  0.0000)
  14 Cu    10.860000    5.430000    5.430000    ( 0.0000,  0.0000,  0.0000)
  15 Cu     0.000000    1.810000    1.810000    ( 0.0000,  0.0000,  0.0000)
  16 Cu     1.810000    3.620000    1.810000    ( 0.0000,  0.0000,  0.0000)
  17 Cu     3.620000    5.430000    1.810000    ( 0.0000,  0.0000,  0.0000)
  18 Cu     5.430000    7.240000    1.810000    ( 0.0000,  0.0000,  0.0000)
  19 Cu     1.810000    1.810000    3.620000    ( 0.0000,  0.0000,  0.0000)
  20 Cu     3.620000    3.620000    3.620000    ( 0.0000,  0.0000,  0.0000)
  21 Cu     5.430000    5.430000    3.620000    ( 0.0000,  0.0000,  0.0000)
  22 Cu     7.240000    7.240000    3.620000    ( 0.0000,  0.0000,  0.0000)
  23 Cu     3.620000    1.810000    5.430000    ( 0.0000,  0.0000,  0.0000)
  24 Cu     5.430000    3.620000    5.430000    ( 0.0000,  0.0000,  0.0000)
  25 Cu     7.240000    5.430000    5.430000    ( 0.0000,  0.0000,  0.0000)
  26 Cu     9.050000    7.240000    5.430000    ( 0.0000,  0.0000,  0.0000)
  27 Cu     5.430000    1.810000    7.240000    ( 0.0000,  0.0000,  0.0000)
  28 Cu     7.240000    3.620000    7.240000    ( 0.0000,  0.0000,  0.0000)
  29 Cu     9.050000    5.430000    7.240000    ( 0.0000,  0.0000,  0.0000)
  30 Cu    10.860000    7.240000    7.240000    ( 0.0000,  0.0000,  0.0000)
  31 Cu     0.000000    3.620000    3.620000    ( 0.0000,  0.0000,  0.0000)
  32 Cu     1.810000    5.430000    3.620000    ( 0.0000,  0.0000,  0.0000)
  33 Cu     3.620000    7.240000    3.620000    ( 0.0000,  0.0000,  0.0000)
  34 Cu     5.430000    9.050000    3.620000    ( 0.0000,  0.0000,  0.0000)
  35 Cu     1.810000    3.620000    5.430000    ( 0.0000,  0.0000,  0.0000)
  36 Cu     3.620000    5.430000    5.430000    ( 0.0000,  0.0000,  0.0000)
  37 Cu     5.430000    7.240000    5.430000    ( 0.0000,  0.0000,  0.0000)
  38 Cu     7.240000    9.050000    5.430000    ( 0.0000,  0.0000,  0.0000)
  39 Cu     3.620000    3.620000    7.240000    ( 0.0000,  0.0000,  0.0000)
  40 Cu     5.430000    5.430000    7.240000    ( 0.0000,  0.0000,  0.0000)
  41 Cu     7.240000    7.240000    7.240000    ( 0.0000,  0.0000,  0.0000)
  42 Cu     9.050000    9.050000    7.240000    ( 0.0000,  0.0000,  0.0000)
  43 Cu     5.430000    3.620000    9.050000    ( 0.0000,  0.0000,  0.0000)
  44 Cu     7.240000    5.430000    9.050000    ( 0.0000,  0.0000,  0.0000)
  45 Cu     9.050000    7.240000    9.050000    ( 0.0000,  0.0000,  0.0000)
  46 Cu    10.860000    9.050000    9.050000    ( 0.0000,  0.0000,  0.0000)
  47 Cu     0.000000    5.430000    5.430000    ( 0.0000,  0.0000,  0.0000)
  48 Cu     1.810000    7.240000    5.430000    ( 0.0000,  0.0000,  0.0000)
  49 Cu     3.620000    9.050000    5.430000    ( 0.0000,  0.0000,  0.0000)
  50 Cu     5.430000   10.860000    5.430000    ( 0.0000,  0.0000,  0.0000)
  51 Cu     1.810000    5.430000    7.240000    ( 0.0000,  0.0000,  0.0000)
  52 Cu     3.620000    7.240000    7.240000    ( 0.0000,  0.0000,  0.0000)
  53 Cu     5.430000    9.050000    7.240000    ( 0.0000,  0.0000,  0.0000)
  54 Cu     7.240000   10.860000    7.240000    ( 0.0000,  0.0000,  0.0000)
  55 Cu     3.620000    5.430000    9.050000    ( 0.0000,  0.0000,  0.0000)
  56 Cu     5.430000    7.240000    9.050000    ( 0.0000,  0.0000,  0.0000)
  57 Cu     7.240000    9.050000    9.050000    ( 0.0000,  0.0000,  0.0000)
  58 Cu     9.050000   10.860000    9.050000    ( 0.0000,  0.0000,  0.0000)
  59 Cu     5.430000    5.430000   10.860000    ( 0.0000,  0.0000,  0.0000)
  60 Cu     7.240000    7.240000   10.860000    ( 0.0000,  0.0000,  0.0000)
  61 Cu     9.050000    9.050000   10.860000    ( 0.0000,  0.0000,  0.0000)
  62 Cu    10.860000   10.860000   10.860000    ( 0.0000,  0.0000,  0.0000)

Unit cell:
           periodic     x           y           z      points  spacing
  1. axis:    yes    0.000000    7.240000    7.240000    48     0.1742
  2. axis:    yes    7.240000    0.000000    7.240000    48     0.1742
  3. axis:    yes    7.240000    7.240000    0.000000    48     0.1742

  Lengths:  10.238906  10.238906  10.238906
  Angles:   60.000000  60.000000  60.000000

Effective grid spacing dv^(1/3) = 0.1900

                     log10-error:    total        iterations:
           time      wfs    density  energy       fermi  poisson
iter:   1  09:49:23  +0.70   +inf  -283.231205    3             
iter:   2  09:55:08  +0.31   +inf  -287.376036    3             
iter:   3  10:00:54  -0.63   +inf  -288.468640    2             
iter:   4  10:07:00  +0.14  -1.18  -265.385302    36            
iter:   5  10:13:15  +1.16  -1.26  -222.797716    37            
iter:   6  10:19:49  +0.06  -1.68  -230.112697    4             
Timing:                              incl.     excl.
-----------------------------------------------------------
Hamiltonian:                        10.045     0.003   0.0% |
 Atomic:                             5.459     0.007   0.0% |
  XC Correction:                     5.453     5.453   0.2% |
 Calculate atomic Hamiltonians:      3.978     3.978   0.2% |
 Communicate:                        0.000     0.000   0.0% |
 Initialize Hamiltonian:             0.000     0.000   0.0% |
 Poisson:                            0.003     0.003   0.0% |
 XC 3D grid:                         0.602     0.602   0.0% |
LCAO initialization:               205.999     0.076   0.0% |
 LCAO eigensolver:                  19.369     0.005   0.0% |
  Calculate projections:             1.442     1.442   0.1% |
  DenseAtomicCorrection:             2.127     2.127   0.1% |
  Distribute overlap matrix:         0.012     0.012   0.0% |
  Orbital Layouts:                   5.629     5.629   0.2% |
  Potential matrix:                  9.659     9.659   0.4% |
  Sum over cells:                    0.495     0.495   0.0% |
 LCAO to grid:                     182.354   182.354   7.0% |--|
 Set positions (LCAO WFS):           4.201     0.000   0.0% |
  Basic WFS set positions:           0.067     0.067   0.0% |
  Basis functions set positions:     0.000     0.000   0.0% |
  TCI: Calculate S, T, P:            4.133     4.133   0.2% |
PWDescriptor:                        0.042     0.042   0.0% |
SCF-cycle:                        2396.966     0.048   0.0% |
 Davidson:                        2221.599   915.318  34.9% |-------------|
  Subspace diag:                   452.983     0.005   0.0% |
   calc_h_matrix:                  166.600   166.600   6.4% |--|
   diagonalize:                      2.480     2.480   0.1% |
   rotate_psi:                     283.898   283.898  10.8% |---|
  calc. matrices:                  559.384   559.384  21.4% |--------|
  diagonalize:                      11.940    11.940   0.5% |
  rotate_psi:                      281.973   281.973  10.8% |---|
 Density:                           31.544     0.000   0.0% |
  Atomic density matrices:           0.333     0.333   0.0% |
  Mix:                              16.024    16.024   0.6% |
  Multipole moments:                 0.007     0.007   0.0% |
  Pseudo density:                   15.180    14.045   0.5% |
   Symmetrize density:               1.135     1.135   0.0% |
 Hamiltonian:                       40.382     0.008   0.0% |
  Atomic:                           22.020     0.027   0.0% |
   XC Correction:                   21.993    21.993   0.8% |
  Calculate atomic Hamiltonians:    15.956    15.956   0.6% |
  Communicate:                       0.000     0.000   0.0% |
  Poisson:                           0.012     0.012   0.0% |
  XC 3D grid:                        2.386     2.386   0.1% |
 Orthonormalize:                   103.393     0.001   0.0% |
  calc_s_matrix:                    11.381    11.381   0.4% |
  inverse-cholesky:                  0.046     0.046   0.0% |
  projections:                      69.329    69.329   2.6% ||
  rotate_psi_s:                     22.636    22.636   0.9% |
Set symmetry:                        0.010     0.010   0.0% |
Other:                               6.528     6.528   0.2% |
-----------------------------------------------------------
Total:                                      2619.590 100.0%

Date: Thu Nov  1 10:21:51 2018
